<?xml version="1.0" encoding="UTF-8"?>

<!-- generated on 2024-11-09 18:50:08 by Eclipse SUMO GUI Version 1.21.0
<sumoConfiguration xmlns:xsi="http://www.w3.org/2001/XMLSchema-instance" xsi:noNamespaceSchemaLocation="http://sumo.dlr.de/xsd/sumoConfiguration.xsd">

    <input>
        <net-file value="C:\Users\shubh\Desktop\traffic_project\two_way\two_way_intersection.net.xml"/>
        <route-files value="C:\Users\shubh\Desktop\traffic_project\two_way\two_way_intersection.rou.xml"/>
        <additional-files value="C:\Users\shubh\Desktop\traffic_project\two_way\traffic_light.tll.xml"/>
    </input>

    <output>
        <output-prefix value="results"/>
        <emission-output value="C:\Users\shubh\Desktop\traffic_project\two_way\emissions.xml"/>
        <queue-output value="C:\Users\shubh\Desktop\traffic_project\two_way\queue.xml"/>
        <summary-output value="C:\Users\shubh\Desktop\traffic_project\two_way\summary.xml"/>
        <tripinfo-output value="C:\Users\shubh\Desktop\traffic_project\two_way\tripinfo.xml"/>
    </output>

    <time>
        <begin value="0"/>
        <end value="3600"/>
    </time>

</sumoConfiguration>
