<?xml version="1.0" encoding="UTF-8"?>

<!-- generated on 2024-11-10 02:15:56 by Eclipse SUMO sumo Version 1.21.0
<sumoConfiguration xmlns:xsi="http://www.w3.org/2001/XMLSchema-instance" xsi:noNamespaceSchemaLocation="http://sumo.dlr.de/xsd/sumoConfiguration.xsd">

    <input>
        <net-file value="four_way_intersection.net.xml"/>
        <route-files value="four_way_intersection.rou.xml"/>
        <additional-files value="traffic_light.tll.xml"/>
    </input>

    <output>
        <output-prefix value="results"/>
        <emission-output value="emissions.xml"/>
        <queue-output value="queue.xml"/>
        <summary-output value="summary.xml"/>
        <tripinfo-output value="tripinfo.xml"/>
    </output>

    <time>
        <begin value="0"/>
        <end value="3600"/>
    </time>

</sumoConfiguration>
-->

<queue-export xmlns:xsi="http://www.w3.org/2001/XMLSchema-instance" xsi:noNamespaceSchemaLocation="http://sumo.dlr.de/xsd/queue_file.xsd">
</queue-export>
